PSF EXT CMAP XPLOR

         2 !NTITLE
* GENERATE LIGAND                                                               
*  DATE:     7/22/25      6:54:48      CREATED BY USER: charmm-gui              

        27 !NATOM
         1 LIG      1        LIG      C1       CG2R61  -0.107000       12.0110           0
         2 LIG      1        LIG      C2       CG2R61  -0.129000       12.0110           0
         3 LIG      1        LIG      C3       CG2R61   0.100000E-02   12.0110           0
         4 LIG      1        LIG      C4       CG2R61  -0.129000       12.0110           0
         5 LIG      1        LIG      C5       CG2R61  -0.107000       12.0110           0
         6 LIG      1        LIG      C6       CG2R61  -0.200000E-02   12.0110           0
         7 LIG      1        LIG      C7       CG321   -0.171000       12.0110           0
         8 LIG      1        LIG      C8       CG331   -0.268000       12.0110           0
         9 LIG      1        LIG      C9       CG2DC1  -0.590000E-01   12.0110           0
        10 LIG      1        LIG      C10      CG251O   0.240000E-01   12.0110           0
        11 LIG      1        LIG      H1       HGA2     0.900000E-01   1.00800           0
        12 LIG      1        LIG      H2       HGA2     0.900000E-01   1.00800           0
        13 LIG      1        LIG      H3       HGA3     0.900000E-01   1.00800           0
        14 LIG      1        LIG      H4       HGA3     0.900000E-01   1.00800           0
        15 LIG      1        LIG      H5       HGA3     0.900000E-01   1.00800           0
        16 LIG      1        LIG      H6       HGR61    0.115000       1.00800           0
        17 LIG      1        LIG      H7       HGR61    0.115000       1.00800           0
        18 LIG      1        LIG      H8       HGR61    0.115000       1.00800           0
        19 LIG      1        LIG      H9       HGR61    0.115000       1.00800           0
        20 LIG      1        LIG      C11      CG2R53   0.360000       12.0110           0
        21 LIG      1        LIG      N        NG2R53  -0.239000       14.0070           0
        22 LIG      1        LIG      C12      CG2R53   0.266000       12.0110           0
        23 LIG      1        LIG      S1       SG311   -0.148000       32.0600           0
        24 LIG      1        LIG      O        OG2D1   -0.414000       15.9994           0
        25 LIG      1        LIG      S2       SG2D1   -0.270000       32.0600           0
        26 LIG      1        LIG      H10      HGP1     0.312000       1.00800           0
        27 LIG      1        LIG      H11      HGA4     0.170000       1.00800           0

        28 !NBOND: bonds
         1         2         2         3         3         4         4         5
         5         6         6         1         3         7         7         8
         6         9         9        10         7        12         7        11
         8        15         8        13         8        14        10        20
        20        24         5        19         4        18         1        17
         2        16        22        23        10        23        22        25
        20        21        21        22        21        26         9        27

        46 !NTHETA: angles
         2         1         6         2         1        17         6         1        17
         1         2         3         1         2        16         3         2        16
         2         3         4         2         3         7         4         3         7
         3         4         5         3         4        18         5         4        18
         4         5         6         4         5        19         6         5        19
         1         6         5         1         6         9         5         6         9
         3         7         8         3         7        11         3         7        12
         8         7        11         8         7        12        11         7        12
         7         8        13         7         8        14         7         8        15
        13         8        14        13         8        15        14         8        15
         6         9        10         6         9        27        10         9        27
         9        10        20         9        10        23        20        10        23
        10        20        21        10        20        24        21        20        24
        20        21        22        20        21        26        22        21        26
        21        22        23        21        22        25        23        22        25
        10        23        22

        63 !NPHI: dihedrals
         1         2         3         4         1         2         3         7
         1         6         5         4         1         6         5        19
         1         6         9        10         1         6         9        27
         2         1         6         5         2         1         6         9
         2         3         4         5         2         3         4        18
         2         3         7         8         2         3         7        11
         2         3         7        12         3         2         1         6
         3         2         1        17         3         4         5         6
         3         4         5        19         3         7         8        13
         3         7         8        14         3         7         8        15
         4         3         2        16         4         3         7         8
         4         3         7        11         4         3         7        12
         4         5         6         9         5         4         3         7
         5         6         1        17         5         6         9        10
         5         6         9        27         6         1         2        16
         6         5         4        18         6         9        10        20
         6         9        10        23         7         3         2        16
         7         3         4        18         9         6         1        17
         9         6         5        19         9        10        20        21
         9        10        20        24         9        10        23        22
        10        20        21        22        10        20        21        26
        10        23        22        21        10        23        22        25
        11         7         8        13        11         7         8        14
        11         7         8        15        12         7         8        13
        12         7         8        14        12         7         8        15
        16         2         1        17        18         4         5        19
        20        10         9        27        20        10        23        22
        20        21        22        23        20        21        22        25
        21        20        10        23        22        21        20        24
        23        10         9        27        23        10        20        24
        23        22        21        26        24        20        21        26
        25        22        21        26

         2 !NIMPHI: impropers
        20        10        21        24        22        21        25        23

         0 !NDON: donors


         0 !NACC: acceptors


         0 !NNB

         0         0         0         0         0         0         0         0
         0         0         0         0         0         0         0         0
         0         0         0         0         0         0         0         0
         0         0         0

         1         0 !NGRP NST2
         0         1         0

         0         0 !NUMLP NUMLPH

         0 !NCRTERM: cross-terms

